16
Lattice="12.0 0.0 0.0 0.0 12.0 0.0 0.0 0.0 12.0" Properties=species:S:1:pos:R:3:forces:R:3 energy=-77.59027052 stress="0.00149137943281615 -2.329346185401534e-05 6.543248643064959e-06 -2.329346185401534e-05 0.001489853645978255 -3.426921806697231e-05 6.543248643064959e-06 -3.426921806697231e-05 0.001464787208558923" free_energy=-77.59027052 pbc="T T T"
C        1.60875696       3.43235280       3.74558112       0.00005487      -0.00029395      -0.00035824
C        2.93578068       3.30392556       4.43486376       0.00057969       0.00006063      -0.00022892
C        2.83781256       2.43712392       5.91361140      -0.00069751       0.00055300      -0.00010165
C        3.74021412       2.16069120       4.31496660      -0.00043104      -0.00022558       0.00056173
H        0.92652636       4.08263292       4.31037192      -0.00007701       0.00002982      -0.00107194
H        1.13909412       2.45073408       3.58615776       0.00021011      -0.00014880      -0.00069157
H        1.79013096       3.89566536       2.76286512       0.00047894      -0.00025134      -0.00069821
H        1.78238196       2.15537304       5.96294340      -0.00062208       0.00019741      -0.00030161
H        3.42763728       1.52322108       6.13938540      -0.00077012       0.00032661       0.00016296
H        3.45335724       4.23986004       4.66567536      -0.00020118       0.00007102      -0.00003606
H        3.32265300       1.23598944       3.91120884       0.00026015       0.00005441       0.00016036
H        3.17331588       3.18973992       6.63438660      -0.00098555       0.00065277      -0.00022087
H        4.56292956       1.61395428       1.34888436       0.00079362      -0.00014457       0.00090004
H        4.80280956       2.17651812       4.56004824      -0.00021083       0.00026803       0.00075642
H        5.29563720       2.92084488       1.72630440       0.00043806      -0.00059582       0.00071150
O        4.52898840       2.36850036       1.96471992       0.00117987      -0.00055366       0.00045605
