16
Lattice="12.0 0.0 0.0 0.0 12.0 0.0 0.0 0.0 12.0" Properties=species:S:1:pos:R:3:momenta:R:3:forces:R:3 energy=-77.63632094 pbc="T T T"
C        1.71936600       8.04044868       4.65085272      -0.77922756       0.35575023      -0.70858927      -0.00002789      -0.00011103      -0.00034029
C        2.43665928       6.78126108       4.23895632       0.48383628       0.60632221      -0.16749793       0.00135264       0.00263841      -0.00111313
C        2.71689672       6.58924536       2.77117032       1.69507335       0.08071232      -0.32086569       0.00028894      -0.00017268       0.00009341
C        3.13238172       6.01735056       5.19868416       0.05602557      -0.72213034       0.96229089      -0.00071118      -0.00005770       0.00086710
H        0.80623644       8.18397072       4.05679404      -0.21158965       0.28275212       0.09680453       0.00021112       0.00020304      -0.00057588
H        1.47206652       8.05456392       5.72127960      -0.18708676       0.03629445       0.12201662      -0.00012773       0.00017973      -0.00040218
H        1.80261252       6.72651828       2.17732872       0.06342801       0.22340375      -0.07415577       0.00060522      -0.00004827      -0.00022183
H        1.78490172       5.80546308       4.64461704       0.16168284      -0.15659355      -0.08202122      -0.00072648      -0.00184623       0.00032162
H        2.39087580       8.88745524       4.43424960       0.11505168      -0.17680754      -0.45892236       0.00016131       0.00016169      -0.00035372
H        2.92191516       6.16282380       6.26155860      -0.00463651       0.22495839      -0.00514262      -0.00033451      -0.00035269       0.00009161
H        3.15795180       5.60736768       2.55070752       0.06171805      -0.07876918      -0.07913033       0.00045145      -0.00008682       0.00014831
H        3.43028628       7.37263812       2.46687420      -0.09952863      -0.12059883       0.04915688       0.00058239      -0.00013647      -0.00003052
H        3.65187660       5.10569676       4.89141840       0.38835087      -0.19015974      -0.39809202      -0.00010367      -0.00009913       0.00064997
H        5.26066848       7.33051344       6.38727264      -0.08913722       0.23719258      -0.30159227      -0.00028351       0.00053454      -0.00036825
H        5.86068432       6.45434268       5.25122928      -0.05489595      -0.38042130       0.33401558      -0.00031746       0.00004681       0.00054982
O        5.08409172       6.99730068       5.48653008      -1.59906439      -0.22190555       1.03172499      -0.00102064      -0.00085320       0.00068395
